% Model:              empty_cavity_calibration_indent_smallermesh.mph
% Version:            COMSOL 5.6.0.401
% Date:               Apr 5 2023, 12:24
% Table:              Table 20 - Global Evaluation 1
% freq (GHz)             abs(emw.S11)^2 (1)
8.870000000000001        0.9911727579139404
8.870999999999999        0.9910519430702677
8.872                    0.9909978817773571
8.873000000000001        0.9909371431579931
8.873999999999999        0.9908729401654275
8.875                    0.990805996511572
8.876000000000001        0.9907365662431294
8.876999999999999        0.9906647289602483
8.877999999999998        0.9905904866493863
8.879000000000001        0.9905137981437575
8.879999999999999        0.9904345956376932
8.880999999999998        0.9903527946199326
8.882                    0.9902683004834674
8.883000000000001        0.9901810128357292
8.883999999999999        0.990090827882428
8.885                    0.9899976391318982
8.886000000000001        0.9899013366885178
8.886999999999999        0.9898018054844846
8.888                    0.9896989228644486
8.889000000000001        0.9895925559605109
8.889999999999999        0.9894825592668015
8.891                    0.9893687727298847
8.892000000000001        0.9892510205550409
8.892999999999999        0.9891291107771587
8.893999999999998        0.9890028355116587
8.895000000000001        0.9888719716867477
8.895999999999999        0.9887362819905092
8.896999999999998        0.98859551574429
8.898                    0.9884494094458133
8.899000000000001        0.9882976867885408
8.899999999999999        0.9881400580611478
8.901                    0.9879762189256242
8.902000000000001        0.987805848662973
8.902999999999999        0.9876286080335834
8.904                    0.9874441369284755
8.905000000000001        0.98725205197758
8.905999999999999        0.9870519442381128
8.907                    0.9868433770279242
8.908000000000001        0.98662588389676
8.908999999999999        0.9863989666650903
8.909999999999998        0.9861620934130948
8.911000000000001        0.9859146962770524
8.911999999999999        0.9856554167209538
8.912999999999998        0.9853688217004779
8.914                    0.9851531667014529
8.915000000000001        0.9848351280674056
8.915999999999999        0.9845454242638417
8.917                    0.9842219987325361
8.918000000000001        0.9838824453668641
8.918999999999999        0.9835257085720552
8.92                     0.9831507816867378
8.921000000000001        0.9827565346818634
8.921999999999999        0.9823432463516778
8.923                    0.98188734803974
8.924000000000001        0.9814832293290067
8.924999999999999        0.9809766999175832
8.925999999999998        0.9804925073766385
8.927000000000001        0.9799539529395269
8.928                    0.9793843063350847
8.928999999999998        0.9787830386404297
8.93                     0.9781637529885313
8.931000000000001        0.9774640688646642
8.931999999999999        0.9767743272650673
8.933                    0.9760124224284108
8.934000000000001        0.9752127249568511
8.934999999999999        0.9743257843191065
8.936                    0.9734186054792896
8.937000000000001        0.9724618489815784
8.937999999999999        0.9713842746945366
8.939                    0.9703009119383637
8.940000000000001        0.9690882097572954
8.940999999999999        0.9677859068537591
8.941999999999998        0.9664006798893584
8.943000000000001        0.9649252614723278
8.944                    0.9633156520259393
8.944999999999999        0.961593181018843
8.946                    0.9597204514669805
8.947000000000001        0.9577002277275971
8.947999999999999        0.9555075759036469
8.949                    0.9531530778653681
8.950000000000001        0.9505704424430074
8.950999999999999        0.9477877795718379
8.952                    0.9447446320476146
8.953000000000001        0.9414254883466132
8.953999999999999        0.9378150549463706
8.955                    0.9338745608908587
8.956000000000001        0.929581198287869
8.956999999999999        0.9248777619014207
8.957999999999998        0.9197683547201901
8.959000000000001        0.9142021290033592
8.96                     0.9081493203815988
8.960999999999999        0.901584907985033
8.962                    0.8945510208975072
8.963000000000001        0.8869186997049742
8.963999999999999        0.8788270107042578
8.965                    0.8702902416885036
8.966000000000001        0.8613117807652813
8.966999999999999        0.852122398641679
8.968                    0.8428651383075259
8.969000000000001        0.8337830542697886
8.969999999999999        0.8251844539057501
8.971                    0.8174051481688125
8.972000000000001        0.8108057199560261
8.972999999999999        0.8057676151123613
8.973999999999998        0.8025402047800314
8.975000000000001        0.8013884345144503
8.976                    0.8023657116605967
8.976999999999999        0.8054190398553068
8.978                    0.8103631794275978
8.979000000000001        0.8169155922327584
8.979999999999999        0.8247047063634453
8.981                    0.8334389370598816
8.982000000000001        0.842623356397527
8.982999999999999        0.8520284424560272
8.984                    0.8614317213274717
8.985000000000001        0.8705907470343903
8.985999999999999        0.8793737427337599
8.987                    0.8876784071196635
8.988000000000001        0.895471348920232
8.988999999999999        0.9027158002480019
8.989999999999998        0.9093665444803973
8.991000000000001        0.9155485199377713
8.992                    0.9212276318199525
8.992999999999999        0.9264314229344085
8.994                    0.9311961243512191
8.995000000000001        0.9355584474684351
8.995999999999999        0.9395291069551874
8.997                    0.9431938031786917
8.998000000000001        0.9465177422837604
8.998999999999999        0.9496111076765862
9                        0.9523999082909174
9.001000000000001        0.9550115449494174
9.001999999999999        0.9573646487700145
9.003                    0.9595720372572107
9.004000000000001        0.9615719695319938
9.004999999999999        0.9634225680916525
9.005999999999998        0.9651650422415725
9.007                    0.966737543949425
9.008000000000001        0.9682090945203838
9.008999999999999        0.9695867222287594
9.01                     0.9708468605573489
9.011000000000001        0.9720392569478598
9.011999999999999        0.9731495645604451
9.013                    0.9741712121508297
9.014000000000001        0.9751519403105142
9.014999999999999        0.9760315355647142
9.016                    0.976896116496514
9.017000000000001        0.9776866746868733
9.017999999999999        0.9784315463449125
9.018999999999998        0.9791218770431541
9.020000000000001        0.9797781291963271
9.020999999999999        0.9804163404902395
9.021999999999998        0.9809746881099853
9.023                    0.9815248224430134
9.024000000000001        0.9820439077492881
9.024999999999999        0.9825530794034744
9.026                    0.9830114993857463
9.027000000000001        0.9834452414949615
9.027999999999999        0.9838560842828693
9.029                    0.9842329459962406
9.030000000000001        0.984586216901037
9.030999999999999        0.9849418216011959
9.032                    0.9852806880496295
9.033000000000001        0.9856038169637359
9.033999999999999        0.9859240930045282
9.034999999999998        0.9862336045300006
9.036000000000001        0.9865111213999765
9.036999999999999        0.9867764037451037
9.037999999999998        0.9870300001570924
9.039                    0.9872726107456661
9.040000000000001        0.9875048548068208
9.040999999999999        0.9877273010516087
9.042                    0.9879404720721857
9.043000000000001        0.988144848890522
9.043999999999999        0.9883408753862781
9.045                    0.9885289625890478
9.046000000000001        0.9887094927528354
9.046999999999999        0.9888828231174929
9.048                    0.9890492892783499
9.049000000000001        0.9892092081004414
9.049999999999999        0.9893628801540743
11.100000000000001       0.990662694195902
11.102500000000001       0.9905191305464873
11.105                   0.9903801634618866
11.1075                  0.9902491448515358
11.110000000000001       0.990087856719765
11.112499999999999       0.9899324400655561
11.115                   0.9897775704620225
11.117500000000001       0.9895941342860236
11.120000000000001       0.9894192767441488
11.1225                  0.9892349491615635
11.125                   0.9890284333053658
11.127500000000001       0.9888324709637833
11.129999999999999       0.9886047930096655
11.1325                  0.9883865647300473
11.135000000000002       0.9881359235893069
11.137500000000001       0.987893790822361
11.139999999999999       0.987620384376207
11.1425                  0.9873451231478284
11.145000000000001       0.987044777850603
11.1475                  0.9867378572778314
11.15                    0.9864063653340819
11.1525                  0.9860584070086219
11.155000000000001       0.9856899930473813
11.157499999999999       0.9852995373907787
11.16                    0.9848855505836582
11.162500000000001       0.9844463103495524
11.165000000000001       0.983976520739136
11.1675                  0.9834749417192862
11.17                    0.982958474738571
11.172500000000001       0.9823930170221882
11.174999999999999       0.9817942163109588
11.1775                  0.9811530209450835
11.180000000000001       0.9804728156058564
11.182500000000001       0.9797389472087191
11.185                   0.9789594083360413
11.1875                  0.9781281009403628
11.190000000000001       0.9772299474815161
11.192499999999999       0.976259828656281
11.195                   0.975236583121
11.197500000000002       0.9741154355579676
11.200000000000001       0.972922196562831
11.202499999999999       0.9716357317204678
11.205                   0.970253311523045
11.207500000000001       0.9687625523251718
11.21                    0.9671634476972392
11.2125                  0.9654325826274756
11.215                   0.9635918175079584
11.217500000000001       0.9615952131581895
11.219999999999999       0.9594689471725165
11.2225                  0.9572032981171884
11.225000000000001       0.9547771079480667
11.227500000000001       0.9521923098733132
11.23                    0.9494717451675196
11.2325                  0.9466309935087902
11.235000000000001       0.9436797776903372
11.237499999999999       0.9406360896683275
11.24                    0.9375532605282255
11.242500000000001       0.9344688003598403
11.245000000000001       0.9314555296447081
11.2475                  0.9285836777912349
11.25                    0.9259355847325994
11.252500000000001       0.9236259471676158
11.254999999999999       0.9216970850852951
11.2575                  0.9202656466061598
11.260000000000002       0.9193835479485163
11.262500000000001       0.9191022421155106
11.264999999999999       0.9194371086130237
11.2675                  0.9203778517303454
11.270000000000001       0.9218837932121808
11.2725                  0.9238912208115402
11.275                   0.9263189050409885
11.2775                  0.929076455032073
11.280000000000001       0.9320510391917731
11.282499999999999       0.9352026887619191
11.285                   0.9384255984738313
11.287500000000001       0.9416538163303922
11.290000000000001       0.9448195059023399
11.2925                  0.9479049372326267
11.295                   0.9508512704421163
11.297500000000001       0.9536711738855658
11.299999999999999       0.9563326433105301
11.3025                  0.9588379646892302
11.305000000000001       0.9611797688067719
11.307500000000001       0.9633734589322656
11.31                    0.9654065274539275
11.3125                  0.9672989445487414
11.315000000000001       0.9690486959928986
11.317499999999999       0.9706740832929329
11.32                    0.9721803736339152
11.322500000000002       0.9735730430787966
11.325000000000001       0.9748647588281402
11.327499999999999       0.9760471177005402
11.33                    0.9771625437602659
11.332500000000001       0.9781847774048242
11.335                   0.9791289307237363
11.3375                  0.9800181923052516
11.34                    0.9808416706219486
11.342500000000001       0.981607778659822
11.344999999999999       0.9823209684764886
11.3475                  0.9829858446844353
11.350000000000001       0.9836062118469874
11.352500000000001       0.9841934803729057
11.355                   0.9847237182785367
11.3575                  0.985239976676767
11.360000000000001       0.9857070061769403
11.362499999999999       0.9861498080443816
11.365                   0.9865723023769449
11.367500000000001       0.9869597931760749
11.370000000000001       0.9873338709823009
11.3725                  0.9877076052608915
11.375                   0.9880107479339314
11.377500000000001       0.9883423981027348
11.379999999999999       0.9886194910111114
11.3825                  0.9888937398464347
11.385000000000002       0.9891491552262822
11.387500000000001       0.9893968764035895
11.389999999999999       0.9896203695195693
11.3925                  0.9898441881823351
11.395000000000001       0.9900734429159326
11.3975                  0.9902737674135469
11.4                     0.9904527289446489
11.4025                  0.9906161659702275
11.405000000000001       0.9908003902654487
11.407499999999999       0.9909706415635782
11.41                    0.991126322052425
11.412500000000001       0.9912714725245849
11.415000000000001       0.9914133473073816
11.4175                  0.9915476472848017
11.42                    0.9916751442975552
11.422500000000001       0.9917987355359013
11.424999999999999       0.9919148688591253
11.4275                  0.9920169984517764
11.430000000000001       0.9921301741070168
11.432500000000001       0.9922361681662312
11.435                   0.9923264776502196
11.4375                  0.9924266355439403
11.440000000000001       0.9925199382580582
11.442499999999999       0.9926127378761554
11.445                   0.9926816868358594
11.447500000000002       0.9927677083387266
11.450000000000001       0.9928474808464546
11.452499999999999       0.9929273771054452
11.455                   0.9929984211163119
11.457500000000001       0.9930659921418563
11.46                    0.9931188908945083
11.4625                  0.9931793798650335
11.465                   0.9932414368106905
11.467500000000001       0.9933010828701951
11.469999999999999       0.9933688858493656
11.4725                  0.9934162534471211
11.475000000000001       0.9934762992948105
11.477500000000001       0.9935312604493449
11.48                    0.9935803359900615
11.4825                  0.9936278983442643
11.485000000000001       0.9936739103186647
11.487499999999999       0.9937184404815883
11.49                    0.9937615636313242
11.492500000000001       0.993803328157481
11.495000000000001       0.9938437900056714
11.4975                  0.9938829958954912
11.5                     0.9939209917435764
