% Model:              final_cavity_sample.mph
% Version:            COMSOL 5.6.0.401
% Date:               Apr 24 2023, 15:03
% Table:              Table 27 - power_refl
% sample_conductivity (S/m)freq=8.47, abs(emw.S11)^2 (1)freq=8.4705, abs(emw.S11)^2 (1)freq=8.471, abs(emw.S11)^2 (1)freq=8.4715, abs(emw.S11)^2 (1)freq=8.472, abs(emw.S11)^2 (1)freq=8.4725, abs(emw.S11)^2 (1)freq=8.473, abs(emw.S11)^2 (1)freq=8.4735, abs(emw.S11)^2 (1)freq=8.474, abs(emw.S11)^2 (1)freq=8.4745, abs(emw.S11)^2 (1)freq=8.475, abs(emw.S11)^2 (1)freq=8.4755, abs(emw.S11)^2 (1)freq=8.476, abs(emw.S11)^2 (1)freq=8.4765, abs(emw.S11)^2 (1)freq=8.477, abs(emw.S11)^2 (1)freq=8.4775, abs(emw.S11)^2 (1)freq=8.478, abs(emw.S11)^2 (1)freq=8.4785, abs(emw.S11)^2 (1)freq=8.479, abs(emw.S11)^2 (1)freq=8.4795, abs(emw.S11)^2 (1)freq=8.48, abs(emw.S11)^2 (1)freq=8.4805, abs(emw.S11)^2 (1)freq=8.481, abs(emw.S11)^2 (1)freq=8.4815, abs(emw.S11)^2 (1)freq=8.482, abs(emw.S11)^2 (1)freq=8.4825, abs(emw.S11)^2 (1)freq=8.483, abs(emw.S11)^2 (1)freq=8.4835, abs(emw.S11)^2 (1)freq=8.484, abs(emw.S11)^2 (1)freq=8.4845, abs(emw.S11)^2 (1)freq=8.485, abs(emw.S11)^2 (1)freq=8.4855, abs(emw.S11)^2 (1)freq=8.486, abs(emw.S11)^2 (1)freq=8.4865, abs(emw.S11)^2 (1)freq=8.487, abs(emw.S11)^2 (1)freq=8.4875, abs(emw.S11)^2 (1)freq=8.488, abs(emw.S11)^2 (1)freq=8.4885, abs(emw.S11)^2 (1)freq=8.489, abs(emw.S11)^2 (1)freq=8.4895, abs(emw.S11)^2 (1)freq=8.49, abs(emw.S11)^2 (1)freq=8.4905, abs(emw.S11)^2 (1)freq=8.491, abs(emw.S11)^2 (1)freq=8.4915, abs(emw.S11)^2 (1)freq=8.492, abs(emw.S11)^2 (1)freq=8.4925, abs(emw.S11)^2 (1)freq=8.493, abs(emw.S11)^2 (1)freq=8.4935, abs(emw.S11)^2 (1)freq=8.494, abs(emw.S11)^2 (1)freq=8.4945, abs(emw.S11)^2 (1)freq=8.495, abs(emw.S11)^2 (1)freq=8.4955, abs(emw.S11)^2 (1)freq=8.496, abs(emw.S11)^2 (1)freq=8.4965, abs(emw.S11)^2 (1)freq=8.497, abs(emw.S11)^2 (1)freq=8.4975, abs(emw.S11)^2 (1)freq=8.498, abs(emw.S11)^2 (1)freq=8.4985, abs(emw.S11)^2 (1)freq=8.499, abs(emw.S11)^2 (1)freq=8.4995, abs(emw.S11)^2 (1)freq=8.5, abs(emw.S11)^2 (1)freq=8.5005, abs(emw.S11)^2 (1)freq=8.501, abs(emw.S11)^2 (1)freq=8.5015, abs(emw.S11)^2 (1)freq=8.502, abs(emw.S11)^2 (1)freq=8.5025, abs(emw.S11)^2 (1)freq=8.503, abs(emw.S11)^2 (1)freq=8.5035, abs(emw.S11)^2 (1)freq=8.504, abs(emw.S11)^2 (1)freq=8.5045, abs(emw.S11)^2 (1)freq=8.505, abs(emw.S11)^2 (1)freq=8.5055, abs(emw.S11)^2 (1)freq=8.506, abs(emw.S11)^2 (1)freq=8.5065, abs(emw.S11)^2 (1)freq=8.507, abs(emw.S11)^2 (1)freq=8.5075, abs(emw.S11)^2 (1)freq=8.508, abs(emw.S11)^2 (1)freq=8.5085, abs(emw.S11)^2 (1)freq=8.509, abs(emw.S11)^2 (1)freq=8.5095, abs(emw.S11)^2 (1)freq=8.51, abs(emw.S11)^2 (1)freq=8.5105, abs(emw.S11)^2 (1)freq=8.511, abs(emw.S11)^2 (1)freq=8.5115, abs(emw.S11)^2 (1)freq=8.512, abs(emw.S11)^2 (1)freq=8.5125, abs(emw.S11)^2 (1)freq=8.513, abs(emw.S11)^2 (1)freq=8.5135, abs(emw.S11)^2 (1)freq=8.514, abs(emw.S11)^2 (1)freq=8.5145, abs(emw.S11)^2 (1)freq=8.515, abs(emw.S11)^2 (1)freq=8.5155, abs(emw.S11)^2 (1)freq=8.516, abs(emw.S11)^2 (1)freq=8.5165, abs(emw.S11)^2 (1)freq=8.517, abs(emw.S11)^2 (1)freq=8.5175, abs(emw.S11)^2 (1)freq=8.518, abs(emw.S11)^2 (1)freq=8.5185, abs(emw.S11)^2 (1)freq=8.519, abs(emw.S11)^2 (1)freq=8.5195, abs(emw.S11)^2 (1)freq=8.52, abs(emw.S11)^2 (1)freq=8.5205, abs(emw.S11)^2 (1)freq=8.521, abs(emw.S11)^2 (1)freq=8.5215, abs(emw.S11)^2 (1)freq=8.522, abs(emw.S11)^2 (1)freq=8.5225, abs(emw.S11)^2 (1)freq=8.523, abs(emw.S11)^2 (1)freq=8.5235, abs(emw.S11)^2 (1)freq=8.524, abs(emw.S11)^2 (1)freq=8.5245, abs(emw.S11)^2 (1)freq=8.525, abs(emw.S11)^2 (1)freq=8.5255, abs(emw.S11)^2 (1)freq=8.526, abs(emw.S11)^2 (1)freq=8.5265, abs(emw.S11)^2 (1)freq=8.527, abs(emw.S11)^2 (1)freq=8.5275, abs(emw.S11)^2 (1)freq=8.528, abs(emw.S11)^2 (1)freq=8.5285, abs(emw.S11)^2 (1)freq=8.529, abs(emw.S11)^2 (1)freq=8.5295, abs(emw.S11)^2 (1)freq=8.53, abs(emw.S11)^2 (1)freq=8.5305, abs(emw.S11)^2 (1)freq=8.531, abs(emw.S11)^2 (1)freq=8.5315, abs(emw.S11)^2 (1)freq=8.532, abs(emw.S11)^2 (1)freq=8.5325, abs(emw.S11)^2 (1)freq=8.533, abs(emw.S11)^2 (1)freq=8.5335, abs(emw.S11)^2 (1)freq=8.534, abs(emw.S11)^2 (1)freq=8.5345, abs(emw.S11)^2 (1)freq=8.535, abs(emw.S11)^2 (1)freq=8.5355, abs(emw.S11)^2 (1)freq=8.536, abs(emw.S11)^2 (1)freq=8.5365, abs(emw.S11)^2 (1)freq=8.537, abs(emw.S11)^2 (1)freq=8.5375, abs(emw.S11)^2 (1)freq=8.538, abs(emw.S11)^2 (1)freq=8.5385, abs(emw.S11)^2 (1)freq=8.539, abs(emw.S11)^2 (1)freq=8.5395, abs(emw.S11)^2 (1)freq=8.54, abs(emw.S11)^2 (1)freq=8.5405, abs(emw.S11)^2 (1)freq=8.541, abs(emw.S11)^2 (1)freq=8.5415, abs(emw.S11)^2 (1)freq=8.542, abs(emw.S11)^2 (1)freq=8.5425, abs(emw.S11)^2 (1)freq=8.543, abs(emw.S11)^2 (1)freq=8.5435, abs(emw.S11)^2 (1)freq=8.544, abs(emw.S11)^2 (1)freq=8.5445, abs(emw.S11)^2 (1)freq=8.545, abs(emw.S11)^2 (1)freq=8.5455, abs(emw.S11)^2 (1)freq=8.546, abs(emw.S11)^2 (1)freq=8.5465, abs(emw.S11)^2 (1)freq=8.547, abs(emw.S11)^2 (1)freq=8.5475, abs(emw.S11)^2 (1)freq=8.548, abs(emw.S11)^2 (1)freq=8.5485, abs(emw.S11)^2 (1)freq=8.549, abs(emw.S11)^2 (1)freq=8.5495, abs(emw.S11)^2 (1)freq=8.55, abs(emw.S11)^2 (1)
1.0E-6                   0.971001510254299        0.970144833133292        0.9692634094796688       0.9685389127202481       0.9676947513276449       0.9668405284203496       0.9659617920400607       0.9650099100651894       0.9641260461264989       0.9630015621130613       0.9620425002619657       0.9608251935676059       0.9596935367136937       0.958408664906291        0.9571278906209386       0.9557074250105091       0.9542562604167727       0.9527145437259465       0.9510236723866379       0.9493024166790319       0.9473739224081071       0.9454671595423186       0.9433443297520177       0.9411629088549397       0.9387942201275422       0.9363399859784848       0.9336433404744859       0.9309345615205101       0.9277864860931607       0.9246955688743549       0.9211565167555666       0.9175821612331639       0.9135988224267587       0.9093679057125584       0.9049549532020946       0.9000306078976676       0.8948475491847789       0.8893149538903541       0.8832036147962048       0.8769083646438282       0.8698408824693169       0.8625499246323045       0.8544798341752942       0.8459565082227307       0.8367164024663067       0.8270182710308416       0.8164831661939012       0.8054171061642736       0.7936546370917972       0.7812434191191209       0.7683777561025834       0.7548988975185722       0.7412361076754204       0.7271911621955557       0.7133748842340967       0.6997088060329977       0.6866634821345737       0.6747012911220451       0.6639331033911362       0.6549116264492233       0.6479449522725405       0.6431955957474711       0.6411294594047618       0.641616245608549        0.644621497141194        0.6502837946194038       0.65801129238365         0.6677476718528328       0.6791020311591387       0.6915520316005078       0.7049379227884727       0.7188258239725036       0.7328129683094402       0.7469179045531699       0.7606055490107251       0.773987007408997        0.7868165648522302       0.7990810998484175       0.8107239208279382       0.8216044127962595       0.8318908121004832       0.8415057174710188       0.8505549303988122       0.8588654755846956       0.8667717920617731       0.8739274420617767       0.8807589818296727       0.8870545584076874       0.8928710735872821       0.8983286638650716       0.9033495763867971       0.9080888703596551       0.9125239874004168       0.9166377381610706       0.9203895586918107       0.9240024834393329       0.9273107847477255       0.9304647483246736       0.9333879198124944       0.9360873925200245       0.938688591529294        0.9411184616280606       0.9433724651822114       0.9455433919766756       0.947508266784665        0.9494510231161514       0.9512564487427422       0.9529552712853326       0.9545113290839663       0.9560679086528348       0.9574804368302623       0.9588841647382049       0.9601375474515886       0.961404115529445        0.9625062715906189       0.9636072700009666       0.9646607213159056       0.965666225877873        0.9666031707092485       0.9674534075462238       0.9683649390922554       0.9691449071217292       0.9699420627204177       0.9706483833500817       0.971416578701012        0.9720168501987209       0.9727438879394417       0.973239770633185        0.9739334699286961       0.9744886699611637       0.9749989039707437       0.9755104410030028       0.9760201047977933       0.9764915414764248       0.9769525997857528       0.9774025154240203       0.9778606969020974       0.978226393190763        0.9787143753427422       0.9790322929690046       0.9794127096850912       0.9797498333435455       0.9802128970169784       0.980466679984326        0.9808135960721979       0.9810779238559155       0.9814594872744374       0.9817021250074903       0.9820375208293053       0.9822556223253158       0.9825219710110382       0.9827664795938278       0.9830360178711596       0.9832352916436778       0.983535868813135        0.9837273817139119       0.9839590546716558       0.9841421513352161       0.9844220731936311       0.9845950663011535       0.98475596650704
0.01658596               0.9709663309423896       0.9700840306528029       0.969230695255089        0.9685123585440043       0.9676190534041789       0.966779513134704        0.9658741536092836       0.9650130651634022       0.9639385811724268       0.9630507237113857       0.9619032331046181       0.960753831870853        0.959594842859512        0.9584063536922222       0.9570149709145784       0.9556577902675027       0.9541437435393528       0.9526511576485319       0.9509528102811844       0.9492147528462819       0.9472950211716034       0.9453875316459855       0.9433101237436766       0.9410140138575435       0.9387973217657445       0.9361734258227262       0.9336131617376625       0.9308222274873613       0.9276903155756437       0.9245896361346039       0.9211431212231365       0.917376075805142        0.9135715053456          0.9092351591537734       0.9048548174922201       0.8998937032233139       0.8947344719687769       0.8891777875089081       0.8830733774097442       0.8767616737610017       0.8696900388880919       0.8623840614785261       0.8543135657085336       0.8457746098463266       0.8365377909633338       0.8267984160938877       0.8162826387812101       0.805175568414195        0.793408658707198        0.7810259194302157       0.7681237843234519       0.7546730740417776       0.740918326240783        0.7269081153394754       0.7130246231244866       0.6993919250745415       0.6863260059685785       0.6743249307481072       0.6635821689903707       0.6545003062125112       0.6475960032516702       0.6428295527758027       0.6407393444349673       0.6412385546234359       0.6442511703371805       0.6498904957872691       0.6576552264025287       0.6673861353422786       0.6787368743119331       0.6912268155669374       0.7046005105153791       0.7185025916672184       0.7325239022754405       0.7466113991167602       0.7603353177090687       0.7737131866389616       0.786611444174331        0.7988073392358749       0.8104816703135388       0.8214015048805254       0.8316768779750856       0.8413222347499526       0.8502985251174638       0.8587124881604313       0.8665997492114984       0.8737748552106012       0.8806085621691393       0.8869123690281677       0.8927314766531284       0.8982174841792411       0.9032313243259444       0.9079786981342252       0.912409838197265        0.9165372020026926       0.9202409919141757       0.9239920692560154       0.9271797497318834       0.930439779534831        0.9333122700005384       0.9360294944135968       0.9386235772614746       0.9410068674901646       0.9433233042334347       0.9454742448901765       0.9474527788892708       0.949383586386628        0.9511591653101207       0.9529002966719389       0.9545133658747014       0.955977989802634        0.9574774849640989       0.9588133069471968       0.9600924426757649       0.9613631000711872       0.9624596761571071       0.963557870517313        0.9646200639708612       0.9656275615771247       0.9665596244751925       0.9674221178974187       0.9683285115155248       0.9691115341495017       0.9698635940959528       0.9706599981197672       0.9713174068789947       0.9720517488437515       0.9726298707367056       0.9733507613578075       0.9738353062384018       0.9745198986493698       0.9749326912553227       0.9755381882120725       0.9760047377225302       0.9765045722446499       0.97697102102545         0.9774118277639574       0.977779239313736        0.9782987070524513       0.9786379080624221       0.9790312580386134       0.9794447958902468       0.9797549268192696       0.9801038543819593       0.9804324767534204       0.9807578397717998       0.9810769644826389       0.9813876975113108       0.9816399677357172       0.981990753160334        0.9822276413511096       0.9824934583783643       0.9827436094658762       0.9830219558399672       0.9832250386336581       0.9835174070699038       0.9837035559816129       0.9839884181776317       0.9841566472434151       0.984375022018885        0.9845499344110126       0.984737144998094
0.1658596                0.970710239587726        0.969811354815669        0.9690119993825079       0.9682070639964198       0.9672559383579253       0.9665615726513423       0.9655219992572748       0.9646352642529533       0.963689194361898        0.9626132382236848       0.9615737501183382       0.9604077140638914       0.9591918380873278       0.9580036102655575       0.9566139860789794       0.955198200719528        0.9537244135600379       0.9521694325706341       0.9504609574214519       0.9487096803303923       0.9467739762088687       0.9448362649403637       0.9427303997637928       0.9404211754082128       0.9381683425527626       0.9355216435484036       0.9329502833768657       0.930103134671313        0.9269560030589118       0.9237975939031638       0.9203273452721866       0.9165230472034784       0.9126545800006095       0.9082840098754437       0.9038587755725405       0.8987733180025277       0.8937358683957678       0.8879013564248296       0.8819556351396713       0.8753591686600832       0.8684139423058417       0.8608315013835426       0.8528178175182913       0.8441696326977914       0.8348372556161057       0.8249785812732013       0.814387201728618        0.8031572266037331       0.791310488882563        0.778753071739947        0.7657597326248985       0.7521666217077659       0.7383169579491823       0.7242236272880509       0.710125047121836        0.6964621898935353       0.6832661257268524       0.6711428534297593       0.6603350863522937       0.6511646254879724       0.6441915487558142       0.6394501973061222       0.6372476068835068       0.6377681269190711       0.6408272075949148       0.6464727792725323       0.6543114712449083       0.6641154787722188       0.675529657044927        0.6881488023570548       0.7015876015176857       0.7156455209621609       0.7297751100706917       0.7439640437121514       0.7578797396946242       0.7712741073331804       0.7843362784423586       0.796646134123486        0.8083599018855698       0.8194889570847927       0.8298178387605261       0.8395826420271194       0.8486450283456544       0.8571426571337919       0.8651018852180066       0.872370820641802        0.8792528259324109       0.8856574766523719       0.891512300471705        0.8970557050889916       0.9021297499628682       0.9069276187783504       0.9114408953698548       0.9155701849746213       0.9193952621670312       0.9230580585998649       0.926400496387275        0.9295974378886548       0.9325501762738445       0.9353224390567111       0.9379222054513626       0.9403584401086755       0.9427395218391267       0.9448132932461448       0.9469844147274514       0.9488339834527463       0.9506438779751057       0.9523970657090449       0.9539520602471175       0.9555362514374465       0.9569690816248708       0.958385841258234        0.9596517186058958       0.9609437152998411       0.9620508190779409       0.963166298832887        0.9642428178786183       0.9652604913900608       0.9662023038317704       0.9670840165384339       0.9679918402272735       0.9687858704505687       0.9695422353147826       0.9703501079702048       0.9709942900578936       0.9717491394113826       0.9723379241811388       0.9729995568981685       0.973590179032596        0.9741600130711953       0.9747067028710596       0.9752342695015903       0.9757599312181284       0.9762583969063645       0.9767287966275588       0.9771855703673742       0.9775717818853956       0.978094863730361        0.97843674991955         0.9788319248093229       0.9791745265757315       0.9796344023155605       0.9799136366527637       0.9803509596478014       0.9806219944462952       0.9809788312909975       0.9812154835813764       0.9815782088516667       0.9818115091684956       0.9820816732977854       0.9823196411979572       0.9825936186886345       0.9828422697741661       0.9831049893272644       0.9833101246299191       0.9835855861497249       0.9837830969333223       0.9840057032158083       0.9842346181995029       0.9843991409805656       0.9846075875073524
